ITEM: TIMESTEP
0
ITEM: NUMBER OF ATOMS
0
ITEM: BOX BOUNDS ff fm pp
0.0000000000000000e+00 1.0000000000000000e+02
0.0000000000000000e+00 5.0000000000000000e+01
-5.0000000000000000e-01 5.0000000000000000e-01
ITEM: ATOMS id type xs ys zs
ITEM: TIMESTEP
250
ITEM: NUMBER OF ATOMS
224
ITEM: BOX BOUNDS ff fm pp
0.0000000000000000e+00 1.0000000000000000e+02
0.0000000000000000e+00 5.0000000000000000e+01
-5.0000000000000000e-01 5.0000000000000000e-01
ITEM: ATOMS id type xs ys zs
3 1 0.155429 0.6283 0.5
5 1 0.035222 0.642263 0.5
13 1 0.0223253 0.688782 0.5
14 1 0.0322023 0.611069 0.5
18 1 0.085582 0.674452 0.5
21 1 0.162441 0.623165 0.5
22 1 0.131075 0.66804 0.5
30 1 0.14433 0.675133 0.5
31 1 0.0132789 0.666876 0.5
33 1 0.134139 0.646425 0.5
37 1 0.188169 0.687178 0.5
40 1 0.193311 0.614111 0.5
41 1 0.212453 0.61351 0.5
42 1 0.204853 0.666083 0.5
48 1 0.210748 0.599047 0.5
53 1 0.23876 0.62239 0.5
57 1 0.0787052 0.685358 0.5
58 1 0.159903 0.675292 0.5
63 1 0.171109 0.638513 0.5
66 1 0.065907 0.688076 0.5
84 1 0.231665 0.64147 0.5
85 1 0.215877 0.674232 0.5
87 1 0.123221 0.629936 0.5
89 1 0.048603 0.592421 0.5
95 1 0.188049 0.620434 0.5
98 1 0.166618 0.589661 0.5
99 1 0.196535 0.683641 0.5
100 1 0.0959084 0.648103 0.5
101 1 0.238692 0.676173 0.5
110 1 0.227165 0.675588 0.5
111 1 0.0429228 0.620836 0.5
114 1 0.0936416 0.686611 0.5
115 1 0.0989901 0.597787 0.5
119 1 0.10502 0.679031 0.5
120 1 0.117643 0.68262 0.5
122 1 0.078555 0.631374 0.5
125 1 0.217101 0.643574 0.5
130 1 0.112683 0.647462 0.5
135 1 0.169708 0.677796 0.5
137 1 0.183909 0.673416 0.5
138 1 0.206393 0.645101 0.5
142 1 0.0634737 0.641081 0.5
144 1 0.0410793 0.687034 0.5
146 1 0.173624 0.614497 0.5
154 1 0.0320723 0.666182 0.5
171 1 0.023546 0.668611 0.5
180 1 0.133813 0.605428 0.5
181 1 0.129723 0.595408 0.5
183 1 0.0447835 0.636283 0.5
190 1 0.124889 0.680636 0.5
195 1 0.0854101 0.641464 0.5
199 1 0.0503005 0.685745 0.5
203 1 0.198245 0.597129 0.5
210 1 0.0193384 0.626307 0.5
220 1 0.184428 0.63524 0.5
222 1 0.105859 0.63162 0.5
1 1 0.250137 0.67973 0.5
2 1 0.303487 0.666467 0.5
6 1 0.434972 0.687882 0.5
8 1 0.432889 0.653187 0.5
12 1 0.41383 0.633294 0.5
16 1 0.275825 0.616779 0.5
26 1 0.479533 0.688238 0.5
29 1 0.359045 0.670519 0.5
36 1 0.267559 0.681912 0.5
49 1 0.459722 0.687162 0.5
54 1 0.484785 0.652795 0.5
55 1 0.29013 0.682304 0.5
56 1 0.370427 0.589152 0.5
59 1 0.371955 0.663595 0.5
62 1 0.349952 0.587976 0.5
72 1 0.470373 0.688452 0.5
76 1 0.330301 0.685637 0.5
77 1 0.487519 0.689086 0.5
79 1 0.375878 0.686496 0.5
80 1 0.253802 0.640392 0.5
81 1 0.494242 0.652517 0.5
86 1 0.46976 0.631497 0.5
92 1 0.496025 0.685602 0.5
96 1 0.256796 0.624872 0.5
103 1 0.40937 0.687869 0.5
107 1 0.277454 0.688388 0.5
108 1 0.421766 0.681547 0.5
116 1 0.398173 0.632594 0.5
124 1 0.336592 0.623071 0.5
126 1 0.325136 0.651154 0.5
128 1 0.31787 0.62101 0.5
131 1 0.336602 0.642197 0.5
143 1 0.348085 0.667471 0.5
145 1 0.311985 0.590982 0.5
147 1 0.46193 0.602502 0.5
151 1 0.352342 0.634578 0.5
155 1 0.396441 0.683492 0.5
164 1 0.468825 0.653035 0.5
165 1 0.326342 0.586519 0.5
166 1 0.319043 0.679673 0.5
168 1 0.406246 0.585277 0.5
169 1 0.388006 0.688265 0.5
174 1 0.481904 0.604099 0.5
175 1 0.357137 0.589857 0.5
184 1 0.289214 0.64919 0.5
188 1 0.404903 0.667958 0.5
189 1 0.291922 0.622136 0.5
194 1 0.374015 0.632776 0.5
196 1 0.483194 0.622634 0.5
204 1 0.448962 0.669323 0.5
205 1 0.274213 0.63456 0.5
208 1 0.339483 0.687687 0.5
211 1 0.328618 0.617673 0.5
212 1 0.389242 0.668521 0.5
216 1 0.311447 0.688319 0.5
224 1 0.383186 0.641766 0.5
4 1 0.697397 0.665766 0.5
7 1 0.714307 0.688612 0.5
11 1 0.690401 0.632801 0.5
17 1 0.693848 0.685866 0.5
20 1 0.556186 0.597952 0.5
27 1 0.682996 0.630998 0.5
28 1 0.618404 0.63433 0.5
34 1 0.572852 0.669772 0.5
43 1 0.603629 0.682822 0.5
44 1 0.670925 0.593414 0.5
47 1 0.61497 0.594171 0.5
51 1 0.536277 0.662777 0.5
67 1 0.615412 0.686502 0.5
69 1 0.745898 0.593875 0.5
71 1 0.671012 0.627389 0.5
73 1 0.669556 0.676762 0.5
75 1 0.705337 0.676665 0.5
88 1 0.635079 0.684049 0.5
90 1 0.527526 0.674815 0.5
93 1 0.597165 0.608032 0.5
94 1 0.585547 0.672345 0.5
97 1 0.643937 0.608168 0.5
102 1 0.511815 0.662247 0.5
104 1 0.653654 0.678141 0.5
105 1 0.510161 0.634608 0.5
113 1 0.617692 0.665517 0.5
121 1 0.580518 0.612024 0.5
123 1 0.746209 0.67551 0.5
127 1 0.681006 0.677441 0.5
129 1 0.60459 0.659097 0.5
133 1 0.736432 0.687685 0.5
134 1 0.51222 0.687902 0.5
141 1 0.616004 0.646478 0.5
148 1 0.727793 0.685685 0.5
150 1 0.540281 0.591707 0.5
153 1 0.550389 0.662562 0.5
157 1 0.592102 0.684222 0.5
159 1 0.706292 0.600158 0.5
161 1 0.677834 0.654077 0.5
167 1 0.514721 0.616972 0.5
170 1 0.6242 0.684899 0.5
172 1 0.697876 0.588208 0.5
173 1 0.747144 0.64757 0.5
176 1 0.660139 0.650834 0.5
178 1 0.541548 0.688674 0.5
179 1 0.730233 0.610577 0.5
182 1 0.565065 0.660818 0.5
186 1 0.708957 0.654984 0.5
191 1 0.558389 0.68875 0.5
192 1 0.630281 0.634458 0.5
197 1 0.568452 0.688254 0.5
200 1 0.737623 0.662538 0.5
214 1 0.534328 0.584447 0.5
215 1 0.612532 0.623953 0.5
217 1 0.663947 0.6885 0.5
218 1 0.644592 0.680266 0.5
223 1 0.550249 0.684593 0.5
9 1 0.777144 0.686702 0.5
10 1 0.790455 0.625453 0.5
15 1 0.880459 0.657883 0.5
19 1 0.970723 0.684019 0.5
23 1 0.82601 0.637074 0.5
24 1 0.812462 0.628265 0.5
25 1 0.900047 0.688717 0.5
32 1 0.766497 0.623613 0.5
35 1 0.877814 0.609874 0.5
38 1 0.873303 0.685336 0.5
39 1 0.971807 0.599728 0.5
45 1 0.91629 0.662281 0.5
46 1 0.949066 0.688618 0.5
50 1 0.854276 0.641052 0.5
52 1 0.902733 0.590156 0.5
60 1 0.823999 0.654976 0.5
61 1 0.763625 0.689151 0.5
64 1 0.830063 0.687735 0.5
65 1 0.860924 0.632734 0.5
68 1 0.857683 0.685115 0.5
70 1 0.988751 0.626197 0.5
74 1 0.759637 0.653664 0.5
78 1 0.788209 0.648774 0.5
82 1 0.829519 0.589458 0.5
83 1 0.771317 0.642171 0.5
91 1 0.771195 0.674666 0.5
106 1 0.926797 0.671731 0.5
109 1 0.921612 0.630232 0.5
112 1 0.935525 0.683091 0.5
117 1 0.89364 0.631628 0.5
118 1 0.809191 0.662257 0.5
132 1 0.781659 0.612921 0.5
136 1 0.817489 0.672361 0.5
139 1 0.955329 0.639476 0.5
140 1 0.966748 0.585653 0.5
149 1 0.810069 0.68422 0.5
152 1 0.892449 0.676045 0.5
156 1 0.875085 0.588344 0.5
158 1 0.883854 0.688457 0.5
160 1 0.844794 0.680728 0.5
162 1 0.8905 0.618231 0.5
163 1 0.980495 0.673913 0.5
177 1 0.976344 0.628018 0.5
185 1 0.922762 0.604034 0.5
187 1 0.790799 0.591939 0.5
193 1 0.939602 0.614702 0.5
198 1 0.987711 0.686541 0.5
201 1 0.94147 0.663846 0.5
202 1 0.798584 0.670049 0.5
206 1 0.780256 0.631546 0.5
207 1 0.835291 0.665577 0.5
209 1 0.916602 0.684352 0.5
213 1 0.956773 0.671367 0.5
219 1 0.906961 0.668272 0.5
221 1 0.851553 0.606296 0.5
ITEM: TIMESTEP
500
ITEM: NUMBER OF ATOMS
224
ITEM: BOX BOUNDS ff fm pp
0.0000000000000000e+00 1.0000000000000000e+02
0.0000000000000000e+00 5.0000000000000000e+01
-5.0000000000000000e-01 5.0000000000000000e-01
ITEM: ATOMS id type xs ys zs
3 1 0.155429 0.615253 0.5
5 1 0.035222 0.630711 0.5
13 1 0.0223253 0.686412 0.5
14 1 0.0322023 0.596394 0.5
18 1 0.085582 0.667591 0.5
21 1 0.162441 0.609612 0.5
22 1 0.131075 0.660004 0.5
30 1 0.14433 0.66841 0.5
31 1 0.0132789 0.658645 0.5
33 1 0.134139 0.635361 0.5
37 1 0.188169 0.683896 0.5
40 1 0.193311 0.599709 0.5
41 1 0.212453 0.599055 0.5
42 1 0.204853 0.657723 0.5
48 1 0.210748 0.58334 0.5
53 1 0.23876 0.608762 0.5
57 1 0.0787052 0.681325 0.5
58 1 0.159903 0.668601 0.5
63 1 0.171109 0.626541 0.5
66 1 0.065907 0.685257 0.5
84 1 0.231665 0.629828 0.5
85 1 0.215877 0.667326 0.5
87 1 0.123221 0.617055 0.5
89 1 0.048603 0.576175 0.5
95 1 0.188049 0.606619 0.5
98 1 0.166618 0.573196 0.5
99 1 0.196535 0.679027 0.5
100 1 0.0959084 0.637242 0.5
101 1 0.238692 0.669666 0.5
110 1 0.227165 0.668959 0.5
111 1 0.0429228 0.607059 0.5
114 1 0.0936416 0.683074 0.5
115 1 0.0989901 0.581976 0.5
119 1 0.10502 0.673167 0.5
120 1 0.117643 0.677698 0.5
122 1 0.078555 0.61864 0.5
125 1 0.217101 0.632174 0.5
130 1 0.112683 0.636522 0.5
135 1 0.169708 0.671646 0.5
137 1 0.183909 0.666351 0.5
138 1 0.206393 0.633879 0.5
142 1 0.0634737 0.629395 0.5
144 1 0.0410793 0.683685 0.5
146 1 0.173624 0.600131 0.5
154 1 0.0320723 0.657839 0.5
171 1 0.023546 0.660671 0.5
180 1 0.133813 0.59026 0.5
181 1 0.129723 0.579403 0.5
183 1 0.0447835 0.624067 0.5
190 1 0.124889 0.67517 0.5
195 1 0.0854101 0.629821 0.5
199 1 0.0503005 0.681856 0.5
203 1 0.198245 0.581264 0.5
210 1 0.0193384 0.613061 0.5
220 1 0.184428 0.622912 0.5
222 1 0.105859 0.618912 0.5
1 1 0.250137 0.674036 0.5
2 1 0.303487 0.65817 0.5
6 1 0.434972 0.684954 0.5
8 1 0.432889 0.642966 0.5
12 1 0.41383 0.620761 0.5
16 1 0.275825 0.602622 0.5
26 1 0.479533 0.685513 0.5
29 1 0.359045 0.662913 0.5
36 1 0.267559 0.676788 0.5
49 1 0.459722 0.683873 0.5
54 1 0.484785 0.642523 0.5
55 1 0.29013 0.677291 0.5
56 1 0.370427 0.572646 0.5
59 1 0.371955 0.654843 0.5
62 1 0.349952 0.571378 0.5
72 1 0.470373 0.685858 0.5
76 1 0.330301 0.681707 0.5
77 1 0.487519 0.686949 0.5
79 1 0.375878 0.68291 0.5
80 1 0.253802 0.628629 0.5
81 1 0.494242 0.64221 0.5
86 1 0.46976 0.618776 0.5
92 1 0.496025 0.681659 0.5
96 1 0.256796 0.611484 0.5
103 1 0.40937 0.684935 0.5
107 1 0.277454 0.685754 0.5
108 1 0.421766 0.676323 0.5
116 1 0.398173 0.619987 0.5
124 1 0.336592 0.609508 0.5
126 1 0.325136 0.640672 0.5
128 1 0.31787 0.60725 0.5
131 1 0.336602 0.630638 0.5
143 1 0.348085 0.659339 0.5
145 1 0.311985 0.574621 0.5
147 1 0.46193 0.587085 0.5
151 1 0.352342 0.62218 0.5
155 1 0.396441 0.678832 0.5
164 1 0.468825 0.642794 0.5
165 1 0.326342 0.569807 0.5
166 1 0.319043 0.673965 0.5
168 1 0.406246 0.568469 0.5
169 1 0.388006 0.685556 0.5
174 1 0.481904 0.588817 0.5
175 1 0.357137 0.573407 0.5
184 1 0.289214 0.638462 0.5
188 1 0.404903 0.659907 0.5
189 1 0.291922 0.608483 0.5
194 1 0.374015 0.620188 0.5
196 1 0.483194 0.609029 0.5
204 1 0.448962 0.661507 0.5
205 1 0.274213 0.622159 0.5
208 1 0.339483 0.684657 0.5
211 1 0.328618 0.603599 0.5
212 1 0.389242 0.660566 0.5
216 1 0.311447 0.685643 0.5
224 1 0.383186 0.630158 0.5
4 1 0.697397 0.657356 0.5
7 1 0.714307 0.686124 0.5
11 1 0.690401 0.620216 0.5
17 1 0.693848 0.682024 0.5
20 1 0.556186 0.582154 0.5
27 1 0.682996 0.618225 0.5
28 1 0.618404 0.621906 0.5
34 1 0.572852 0.662034 0.5
43 1 0.603629 0.677959 0.5
44 1 0.670925 0.577247 0.5
47 1 0.61497 0.578066 0.5
51 1 0.536277 0.6539 0.5
67 1 0.615412 0.682919 0.5
69 1 0.745898 0.577745 0.5
71 1 0.671012 0.614251 0.5
73 1 0.669556 0.670382 0.5
75 1 0.705337 0.670265 0.5
88 1 0.635079 0.679565 0.5
90 1 0.527526 0.668026 0.5
93 1 0.597165 0.59309 0.5
94 1 0.585547 0.665074 0.5
97 1 0.643937 0.593238 0.5
102 1 0.511815 0.65329 0.5
104 1 0.653654 0.672069 0.5
105 1 0.510161 0.622213 0.5
113 1 0.617692 0.657066 0.5
121 1 0.580518 0.597435 0.5
123 1 0.746209 0.668864 0.5
127 1 0.681006 0.67121 0.5
129 1 0.60459 0.64968 0.5
133 1 0.736432 0.684653 0.5
134 1 0.51222 0.684986 0.5
141 1 0.616004 0.63542 0.5
148 1 0.727793 0.681775 0.5
150 1 0.540281 0.575404 0.5
153 1 0.550389 0.653652 0.5
157 1 0.592102 0.679794 0.5
159 1 0.706292 0.584543 0.5
161 1 0.677834 0.643973 0.5
167 1 0.514721 0.602833 0.5
170 1 0.6242 0.680701 0.5
172 1 0.697876 0.571629 0.5
173 1 0.747144 0.636644 0.5
176 1 0.660139 0.640311 0.5
178 1 0.541548 0.686227 0.5
179 1 0.730233 0.595859 0.5
182 1 0.565065 0.651649 0.5
186 1 0.708957 0.645 0.5
191 1 0.558389 0.686356 0.5
192 1 0.630281 0.622047 0.5
197 1 0.568452 0.685538 0.5
200 1 0.737623 0.653626 0.5
214 1 0.534328 0.567575 0.5
215 1 0.612532 0.610476 0.5
217 1 0.663947 0.685937 0.5
218 1 0.644592 0.674706 0.5
223 1 0.550249 0.680289 0.5
9 1 0.777144 0.683204 0.5
10 1 0.790455 0.612123 0.5
15 1 0.880459 0.648295 0.5
19 1 0.970723 0.679526 0.5
23 1 0.82601 0.624944 0.5
24 1 0.812462 0.615215 0.5
25 1 0.900047 0.686299 0.5
32 1 0.766497 0.610102 0.5
35 1 0.877814 0.595094 0.5
38 1 0.873303 0.681295 0.5
39 1 0.971807 0.584078 0.5
45 1 0.91629 0.65333 0.5
46 1 0.949066 0.686133 0.5
50 1 0.854276 0.629363 0.5
52 1 0.902733 0.57373 0.5
60 1 0.823999 0.644991 0.5
61 1 0.763625 0.68707 0.5
64 1 0.830063 0.68473 0.5
65 1 0.860924 0.620142 0.5
68 1 0.857683 0.680993 0.5
70 1 0.988751 0.61294 0.5
74 1 0.759637 0.643505 0.5
78 1 0.788209 0.637995 0.5
82 1 0.829519 0.572976 0.5
83 1 0.771317 0.630608 0.5
91 1 0.771195 0.667848 0.5
106 1 0.926797 0.664345 0.5
109 1 0.921612 0.617381 0.5
112 1 0.935525 0.678308 0.5
117 1 0.89364 0.61892 0.5
118 1 0.809191 0.653301 0.5
132 1 0.781659 0.598412 0.5
136 1 0.817489 0.665094 0.5
139 1 0.955329 0.62761 0.5
140 1 0.966748 0.568874 0.5
149 1 0.810069 0.679792 0.5
152 1 0.892449 0.669511 0.5
156 1 0.875085 0.571775 0.5
158 1 0.883854 0.685868 0.5
160 1 0.844794 0.675286 0.5
162 1 0.8905 0.604209 0.5
163 1 0.980495 0.666945 0.5
177 1 0.976344 0.614943 0.5
185 1 0.922762 0.588747 0.5
187 1 0.790799 0.575655 0.5
193 1 0.939602 0.600354 0.5
198 1 0.987711 0.682974 0.5
201 1 0.94147 0.655133 0.5
202 1 0.798584 0.662359 0.5
206 1 0.780256 0.618831 0.5
207 1 0.835291 0.657135 0.5
209 1 0.916602 0.679968 0.5
213 1 0.956773 0.663915 0.5
219 1 0.906961 0.660275 0.5
221 1 0.851553 0.591203 0.5
ITEM: TIMESTEP
750
ITEM: NUMBER OF ATOMS
224
ITEM: BOX BOUNDS ff fm pp
0.0000000000000000e+00 1.0000000000000000e+02
0.0000000000000000e+00 5.0000000000000000e+01
-5.0000000000000000e-01 5.0000000000000000e-01
ITEM: ATOMS id type xs ys zs
3 1 0.155429 0.600956 0.5
5 1 0.035222 0.61791 0.5
13 1 0.0223253 0.682791 0.5
14 1 0.0322023 0.580469 0.5
18 1 0.085582 0.659479 0.5
21 1 0.162441 0.594808 0.5
22 1 0.131075 0.650717 0.5
30 1 0.14433 0.660436 0.5
31 1 0.0132789 0.649165 0.5
33 1 0.134139 0.623046 0.5
37 1 0.188169 0.679364 0.5
40 1 0.193311 0.584058 0.5
41 1 0.212453 0.583349 0.5
42 1 0.204853 0.648114 0.5
48 1 0.210748 0.566384 0.5
53 1 0.23876 0.593884 0.5
57 1 0.0787052 0.676042 0.5
58 1 0.159903 0.66066 0.5
63 1 0.171109 0.613318 0.5
66 1 0.065907 0.681188 0.5
84 1 0.231665 0.616936 0.5
85 1 0.215877 0.65917 0.5
87 1 0.123221 0.602924 0.5
89 1 0.048603 0.558678 0.5
95 1 0.188049 0.591554 0.5
98 1 0.166618 0.55548 0.5
99 1 0.196535 0.673163 0.5
100 1 0.0959084 0.62513 0.5
101 1 0.238692 0.66191 0.5
110 1 0.227165 0.661079 0.5
111 1 0.0429228 0.592032 0.5
114 1 0.0936416 0.678287 0.5
115 1 0.0989901 0.564915 0.5
119 1 0.10502 0.666054 0.5
120 1 0.117643 0.671526 0.5
122 1 0.078555 0.604657 0.5
125 1 0.217101 0.619523 0.5
130 1 0.112683 0.624333 0.5
135 1 0.169708 0.664245 0.5
137 1 0.183909 0.658035 0.5
138 1 0.206393 0.621408 0.5
142 1 0.0634737 0.616459 0.5
144 1 0.0410793 0.679086 0.5
146 1 0.173624 0.584515 0.5
154 1 0.0320723 0.648245 0.5
171 1 0.023546 0.651481 0.5
180 1 0.133813 0.573842 0.5
181 1 0.129723 0.562147 0.5
183 1 0.0447835 0.610601 0.5
190 1 0.124889 0.668455 0.5
195 1 0.0854101 0.616928 0.5
199 1 0.0503005 0.676718 0.5
203 1 0.198245 0.564149 0.5
210 1 0.0193384 0.598565 0.5
220 1 0.184428 0.609335 0.5
222 1 0.105859 0.604953 0.5
1 1 0.250137 0.667092 0.5
2 1 0.303487 0.648623 0.5
6 1 0.434972 0.680777 0.5
8 1 0.432889 0.631496 0.5
12 1 0.41383 0.606977 0.5
16 1 0.275825 0.587215 0.5
26 1 0.479533 0.681538 0.5
29 1 0.359045 0.654057 0.5
36 1 0.267559 0.670415 0.5
49 1 0.459722 0.679333 0.5
54 1 0.484785 0.631002 0.5
55 1 0.29013 0.671028 0.5
56 1 0.370427 0.55489 0.5
59 1 0.371955 0.644841 0.5
62 1 0.349952 0.55353 0.5
72 1 0.470373 0.682015 0.5
76 1 0.330301 0.676528 0.5
77 1 0.487519 0.683562 0.5
79 1 0.375878 0.678074 0.5
80 1 0.253802 0.615615 0.5
81 1 0.494242 0.630652 0.5
86 1 0.46976 0.604806 0.5
92 1 0.496025 0.676466 0.5
96 1 0.256796 0.596847 0.5
103 1 0.40937 0.680751 0.5
107 1 0.277454 0.68187 0.5
108 1 0.421766 0.669849 0.5
116 1 0.398173 0.60613 0.5
124 1 0.336592 0.594696 0.5
126 1 0.325136 0.62894 0.5
128 1 0.31787 0.59224 0.5
131 1 0.336602 0.617829 0.5
143 1 0.348085 0.649957 0.5
145 1 0.311985 0.55701 0.5
147 1 0.46193 0.570418 0.5
151 1 0.352342 0.608532 0.5
155 1 0.396441 0.672921 0.5
164 1 0.468825 0.631304 0.5
165 1 0.326342 0.551846 0.5
166 1 0.319043 0.667007 0.5
168 1 0.406246 0.550412 0.5
169 1 0.388006 0.681597 0.5
174 1 0.481904 0.572285 0.5
175 1 0.357137 0.555707 0.5
184 1 0.289214 0.626484 0.5
188 1 0.404903 0.650607 0.5
189 1 0.291922 0.59358 0.5
194 1 0.374015 0.606349 0.5
196 1 0.483194 0.594174 0.5
204 1 0.448962 0.65244 0.5
205 1 0.274213 0.608509 0.5
208 1 0.339483 0.680376 0.5
211 1 0.328618 0.588275 0.5
212 1 0.389242 0.651361 0.5
216 1 0.311447 0.681717 0.5
224 1 0.383186 0.6173 0.5
4 1 0.697397 0.647695 0.5
7 1 0.714307 0.682385 0.5
11 1 0.690401 0.60638 0.5
17 1 0.693848 0.676933 0.5
20 1 0.556186 0.565107 0.5
27 1 0.682996 0.604203 0.5
28 1 0.618404 0.608232 0.5
34 1 0.572852 0.653046 0.5
43 1 0.603629 0.671847 0.5
44 1 0.670925 0.559831 0.5
47 1 0.61497 0.56071 0.5
51 1 0.536277 0.643773 0.5
67 1 0.615412 0.678085 0.5
69 1 0.745898 0.560366 0.5
71 1 0.671012 0.599863 0.5
73 1 0.669556 0.662752 0.5
75 1 0.705337 0.662614 0.5
88 1 0.635079 0.673831 0.5
90 1 0.527526 0.659988 0.5
93 1 0.597165 0.576898 0.5
94 1 0.585547 0.656554 0.5
97 1 0.643937 0.577057 0.5
102 1 0.511815 0.643083 0.5
104 1 0.653654 0.664747 0.5
105 1 0.510161 0.608568 0.5
113 1 0.617692 0.647365 0.5
121 1 0.580518 0.581595 0.5
123 1 0.746209 0.660969 0.5
127 1 0.681006 0.66373 0.5
129 1 0.60459 0.639013 0.5
133 1 0.736432 0.680371 0.5
134 1 0.51222 0.68082 0.5
141 1 0.616004 0.623112 0.5
148 1 0.727793 0.676614 0.5
150 1 0.540281 0.557851 0.5
153 1 0.550389 0.643493 0.5
157 1 0.592102 0.674117 0.5
159 1 0.706292 0.567679 0.5
161 1 0.677834 0.632619 0.5
167 1 0.514721 0.587444 0.5
170 1 0.6242 0.675253 0.5
172 1 0.697876 0.553799 0.5
173 1 0.747144 0.624467 0.5
176 1 0.660139 0.628539 0.5
178 1 0.541548 0.68253 0.5
179 1 0.730233 0.57989 0.5
182 1 0.565065 0.641231 0.5
186 1 0.708957 0.633767 0.5
191 1 0.558389 0.682712 0.5
192 1 0.630281 0.608387 0.5
197 1 0.568452 0.681573 0.5
200 1 0.737623 0.643463 0.5
214 1 0.534328 0.549454 0.5
215 1 0.612532 0.595749 0.5
217 1 0.663947 0.682124 0.5
218 1 0.644592 0.667896 0.5
223 1 0.550249 0.674736 0.5
9 1 0.777144 0.678456 0.5
10 1 0.790455 0.597542 0.5
15 1 0.880459 0.637457 0.5
19 1 0.970723 0.673782 0.5
23 1 0.82601 0.611564 0.5
24 1 0.812462 0.600914 0.5
25 1 0.900047 0.682632 0.5
32 1 0.766497 0.595342 0.5
35 1 0.877814 0.579063 0.5
38 1 0.873303 0.676004 0.5
39 1 0.971807 0.567178 0.5
45 1 0.91629 0.643128 0.5
46 1 0.949066 0.682398 0.5
50 1 0.854276 0.616424 0.5
52 1 0.902733 0.556054 0.5
60 1 0.823999 0.633757 0.5
61 1 0.763625 0.683738 0.5
64 1 0.830063 0.680474 0.5
65 1 0.860924 0.6063 0.5
68 1 0.857683 0.675622 0.5
70 1 0.988751 0.598434 0.5
74 1 0.759637 0.632097 0.5
78 1 0.788209 0.625966 0.5
82 1 0.829519 0.555245 0.5
83 1 0.771317 0.617796 0.5
91 1 0.771195 0.659779 0.5
106 1 0.926797 0.65571 0.5
109 1 0.921612 0.60328 0.5
112 1 0.935525 0.672275 0.5
117 1 0.89364 0.604963 0.5
118 1 0.809191 0.643096 0.5
132 1 0.781659 0.582653 0.5
136 1 0.817489 0.656576 0.5
139 1 0.955329 0.614494 0.5
140 1 0.966748 0.550845 0.5
149 1 0.810069 0.674115 0.5
152 1 0.892449 0.661728 0.5
156 1 0.875085 0.553956 0.5
158 1 0.883854 0.682028 0.5
160 1 0.844794 0.668595 0.5
162 1 0.8905 0.588937 0.5
163 1 0.980495 0.658726 0.5
177 1 0.976344 0.600617 0.5
185 1 0.922762 0.572209 0.5
187 1 0.790799 0.55812 0.5
193 1 0.939602 0.584757 0.5
198 1 0.987711 0.678157 0.5
201 1 0.94147 0.64517 0.5
202 1 0.798584 0.65342 0.5
206 1 0.780256 0.604865 0.5
207 1 0.835291 0.647444 0.5
209 1 0.916602 0.674333 0.5
213 1 0.956773 0.655213 0.5
219 1 0.906961 0.651028 0.5
221 1 0.851553 0.57486 0.5
ITEM: TIMESTEP
1000
ITEM: NUMBER OF ATOMS
224
ITEM: BOX BOUNDS ff fm pp
0.0000000000000000e+00 1.0000000000000000e+02
0.0000000000000000e+00 5.0000000000000000e+01
-5.0000000000000000e-01 5.0000000000000000e-01
ITEM: ATOMS id type xs ys zs
3 1 0.155429 0.585409 0.5
5 1 0.035222 0.603858 0.5
13 1 0.0223253 0.677921 0.5
14 1 0.0322023 0.563295 0.5
18 1 0.085582 0.650118 0.5
21 1 0.162441 0.578755 0.5
22 1 0.131075 0.640181 0.5
30 1 0.14433 0.651213 0.5
31 1 0.0132789 0.638434 0.5
33 1 0.134139 0.609482 0.5
37 1 0.188169 0.673582 0.5
40 1 0.193311 0.567157 0.5
41 1 0.212453 0.566393 0.5
42 1 0.204853 0.637254 0.5
48 1 0.210748 0.548177 0.5
53 1 0.23876 0.577756 0.5
57 1 0.0787052 0.669509 0.5
58 1 0.159903 0.651469 0.5
63 1 0.171109 0.598845 0.5
66 1 0.065907 0.675869 0.5
84 1 0.231665 0.602794 0.5
85 1 0.215877 0.649765 0.5
87 1 0.123221 0.587542 0.5
89 1 0.048603 0.539932 0.5
95 1 0.188049 0.575239 0.5
98 1 0.166618 0.536515 0.5
99 1 0.196535 0.666049 0.5
100 1 0.0959084 0.611769 0.5
101 1 0.238692 0.652903 0.5
110 1 0.227165 0.65195 0.5
111 1 0.0429228 0.575755 0.5
114 1 0.0936416 0.67225 0.5
115 1 0.0989901 0.546605 0.5
119 1 0.10502 0.65769 0.5
120 1 0.117643 0.664103 0.5
122 1 0.078555 0.589423 0.5
125 1 0.217101 0.605623 0.5
130 1 0.112683 0.610893 0.5
135 1 0.169708 0.655595 0.5
137 1 0.183909 0.648469 0.5
138 1 0.206393 0.607686 0.5
142 1 0.0634737 0.602273 0.5
144 1 0.0410793 0.673237 0.5
146 1 0.173624 0.567649 0.5
154 1 0.0320723 0.637402 0.5
171 1 0.023546 0.641042 0.5
180 1 0.133813 0.556174 0.5
181 1 0.129723 0.543642 0.5
183 1 0.0447835 0.595885 0.5
190 1 0.124889 0.66049 0.5
195 1 0.0854101 0.602786 0.5
199 1 0.0503005 0.67033 0.5
203 1 0.198245 0.545785 0.5
210 1 0.0193384 0.582819 0.5
220 1 0.184428 0.594507 0.5
222 1 0.105859 0.589745 0.5
1 1 0.250137 0.658899 0.5
2 1 0.303487 0.637826 0.5
6 1 0.434972 0.67535 0.5
8 1 0.432889 0.618775 0.5
12 1 0.41383 0.591943 0.5
16 1 0.275825 0.570558 0.5
26 1 0.479533 0.676313 0.5
29 1 0.359045 0.643952 0.5
36 1 0.267559 0.662791 0.5
49 1 0.459722 0.673543 0.5
54 1 0.484785 0.61823 0.5
55 1 0.29013 0.663515 0.5
56 1 0.370427 0.535885 0.5
59 1 0.371955 0.633589 0.5
62 1 0.349952 0.534432 0.5
72 1 0.470373 0.676921 0.5
76 1 0.330301 0.670099 0.5
77 1 0.487519 0.678925 0.5
79 1 0.375878 0.671988 0.5
80 1 0.253802 0.601351 0.5
81 1 0.494242 0.617845 0.5
86 1 0.46976 0.589585 0.5
92 1 0.496025 0.670024 0.5
96 1 0.256796 0.580959 0.5
103 1 0.40937 0.675317 0.5
107 1 0.277454 0.676736 0.5
108 1 0.421766 0.662125 0.5
116 1 0.398173 0.591023 0.5
124 1 0.336592 0.578633 0.5
126 1 0.325136 0.615958 0.5
128 1 0.31787 0.57598 0.5
131 1 0.336602 0.60377 0.5
143 1 0.348085 0.639325 0.5
145 1 0.311985 0.538149 0.5
147 1 0.46193 0.552501 0.5
151 1 0.352342 0.593634 0.5
155 1 0.396441 0.665761 0.5
164 1 0.468825 0.618563 0.5
165 1 0.326342 0.532634 0.5
166 1 0.319043 0.658799 0.5
168 1 0.406246 0.531104 0.5
169 1 0.388006 0.676388 0.5
174 1 0.481904 0.554503 0.5
175 1 0.357137 0.536757 0.5
184 1 0.289214 0.613256 0.5
188 1 0.404903 0.640056 0.5
189 1 0.291922 0.577428 0.5
194 1 0.374015 0.591261 0.5
196 1 0.483194 0.57807 0.5
204 1 0.448962 0.642123 0.5
205 1 0.274213 0.593609 0.5
208 1 0.339483 0.674845 0.5
211 1 0.328618 0.571701 0.5
212 1 0.389242 0.640906 0.5
216 1 0.311447 0.676542 0.5
224 1 0.383186 0.603191 0.5
4 1 0.697397 0.636784 0.5
7 1 0.714307 0.677397 0.5
11 1 0.690401 0.591295 0.5
17 1 0.693848 0.670592 0.5
20 1 0.556186 0.54681 0.5
27 1 0.682996 0.58893 0.5
28 1 0.618404 0.593307 0.5
34 1 0.572852 0.642808 0.5
43 1 0.603629 0.664484 0.5
44 1 0.670925 0.541165 0.5
47 1 0.61497 0.542105 0.5
51 1 0.536277 0.632396 0.5
67 1 0.615412 0.672002 0.5
69 1 0.745898 0.541736 0.5
71 1 0.671012 0.584224 0.5
73 1 0.669556 0.653872 0.5
75 1 0.705337 0.653713 0.5
88 1 0.635079 0.666847 0.5
90 1 0.527526 0.650699 0.5
93 1 0.597165 0.559455 0.5
94 1 0.585547 0.646783 0.5
97 1 0.643937 0.559627 0.5
102 1 0.511815 0.631626 0.5
104 1 0.653654 0.656175 0.5
105 1 0.510161 0.593673 0.5
113 1 0.617692 0.636415 0.5
121 1 0.580518 0.564506 0.5
123 1 0.746209 0.651823 0.5
127 1 0.681006 0.655 0.5
129 1 0.60459 0.627097 0.5
133 1 0.736432 0.674839 0.5
134 1 0.51222 0.675403 0.5
141 1 0.616004 0.609554 0.5
148 1 0.727793 0.670203 0.5
150 1 0.540281 0.539048 0.5
153 1 0.550389 0.632084 0.5
157 1 0.592102 0.66719 0.5
159 1 0.706292 0.549565 0.5
161 1 0.677834 0.620015 0.5
167 1 0.514721 0.570805 0.5
170 1 0.6242 0.668555 0.5
172 1 0.697876 0.534719 0.5
173 1 0.747144 0.611041 0.5
176 1 0.660139 0.615517 0.5
178 1 0.541548 0.677584 0.5
179 1 0.730233 0.562672 0.5
182 1 0.565065 0.629562 0.5
186 1 0.708957 0.621283 0.5
191 1 0.558389 0.677818 0.5
192 1 0.630281 0.593476 0.5
197 1 0.568452 0.676357 0.5
200 1 0.737623 0.63205 0.5
214 1 0.534328 0.530082 0.5
215 1 0.612532 0.579772 0.5
217 1 0.663947 0.677061 0.5
218 1 0.644592 0.659836 0.5
223 1 0.550249 0.667933 0.5
9 1 0.777144 0.672458 0.5
10 1 0.790455 0.581712 0.5
15 1 0.880459 0.625369 0.5
19 1 0.970723 0.666789 0.5
23 1 0.82601 0.596934 0.5
24 1 0.812462 0.585364 0.5
25 1 0.900047 0.677715 0.5
32 1 0.766497 0.579332 0.5
35 1 0.877814 0.561783 0.5
38 1 0.873303 0.669463 0.5
39 1 0.971807 0.549028 0.5
45 1 0.91629 0.631677 0.5
46 1 0.949066 0.677414 0.5
50 1 0.854276 0.602235 0.5
52 1 0.902733 0.537127 0.5
60 1 0.823999 0.621272 0.5
61 1 0.763625 0.679156 0.5
64 1 0.830063 0.674968 0.5
65 1 0.860924 0.591207 0.5
68 1 0.857683 0.669 0.5
70 1 0.988751 0.582677 0.5
74 1 0.759637 0.619439 0.5
78 1 0.788209 0.612687 0.5
82 1 0.829519 0.536263 0.5
83 1 0.771317 0.603734 0.5
91 1 0.771195 0.650461 0.5
106 1 0.926797 0.645825 0.5
109 1 0.921612 0.587929 0.5
112 1 0.935525 0.664992 0.5
117 1 0.89364 0.589755 0.5
118 1 0.809191 0.631641 0.5
132 1 0.781659 0.565645 0.5
136 1 0.817489 0.646809 0.5
139 1 0.955329 0.600129 0.5
140 1 0.966748 0.531566 0.5
149 1 0.810069 0.667187 0.5
152 1 0.892449 0.652694 0.5
156 1 0.875085 0.534887 0.5
158 1 0.883854 0.676939 0.5
160 1 0.844794 0.660653 0.5
162 1 0.8905 0.572414 0.5
163 1 0.980495 0.649258 0.5
177 1 0.976344 0.585042 0.5
185 1 0.922762 0.554422 0.5
187 1 0.790799 0.539335 0.5
193 1 0.939602 0.567909 0.5
198 1 0.987711 0.67209 0.5
201 1 0.94147 0.633956 0.5
202 1 0.798584 0.64323 0.5
206 1 0.780256 0.589649 0.5
207 1 0.835291 0.636503 0.5
209 1 0.916602 0.667449 0.5
213 1 0.956773 0.645261 0.5
219 1 0.906961 0.64053 0.5
221 1 0.851553 0.557267 0.5
ITEM: TIMESTEP
1250
ITEM: NUMBER OF ATOMS
224
ITEM: BOX BOUNDS ff fm pp
0.0000000000000000e+00 1.0000000000000000e+02
0.0000000000000000e+00 5.0000000000000000e+01
-5.0000000000000000e-01 5.0000000000000000e-01
ITEM: ATOMS id type xs ys zs
89 1 0.048603 0.519936 0.5
98 1 0.166618 0.516299 0.5
115 1 0.0989901 0.527044 0.5
181 1 0.129723 0.523887 0.5
203 1 0.198245 0.52617 0.5
48 1 0.210748 0.528721 0.5
14 1 0.0322023 0.54487 0.5
180 1 0.133813 0.537256 0.5
40 1 0.193311 0.549005 0.5
41 1 0.212453 0.548188 0.5
111 1 0.0429228 0.558229 0.5
21 1 0.162441 0.561452 0.5
146 1 0.173624 0.549533 0.5
95 1 0.188049 0.557674 0.5
53 1 0.23876 0.560378 0.5
210 1 0.0193384 0.565823 0.5
122 1 0.078555 0.572939 0.5
222 1 0.105859 0.573287 0.5
87 1 0.123221 0.570911 0.5
3 1 0.155429 0.568612 0.5
183 1 0.0447835 0.57992 0.5
142 1 0.0634737 0.586837 0.5
195 1 0.0854101 0.587393 0.5
63 1 0.171109 0.583123 0.5
220 1 0.184428 0.578429 0.5
84 1 0.231665 0.587402 0.5
5 1 0.035222 0.588557 0.5
100 1 0.0959084 0.597157 0.5
130 1 0.112683 0.596204 0.5
33 1 0.134139 0.594667 0.5
138 1 0.206393 0.592714 0.5
125 1 0.217101 0.590472 0.5
31 1 0.0132789 0.626454 0.5
154 1 0.0320723 0.625308 0.5
42 1 0.204853 0.625144 0.5
171 1 0.023546 0.629352 0.5
18 1 0.085582 0.639506 0.5
22 1 0.131075 0.628394 0.5
137 1 0.183909 0.637653 0.5
85 1 0.215877 0.639109 0.5
119 1 0.10502 0.648076 0.5
190 1 0.124889 0.651274 0.5
30 1 0.14433 0.640739 0.5
58 1 0.159903 0.641028 0.5
135 1 0.169708 0.645694 0.5
110 1 0.227165 0.64157 0.5
101 1 0.238692 0.642647 0.5
144 1 0.0410793 0.666138 0.5
199 1 0.0503005 0.662692 0.5
57 1 0.0787052 0.661726 0.5
114 1 0.0936416 0.664963 0.5
120 1 0.117643 0.655431 0.5
37 1 0.188169 0.666549 0.5
99 1 0.196535 0.657685 0.5
13 1 0.0223253 0.6718 0.5
66 1 0.065907 0.6693 0.5
168 1 0.406246 0.510546 0.5
145 1 0.311985 0.518038 0.5
165 1 0.326342 0.512173 0.5
62 1 0.349952 0.514084 0.5
175 1 0.357137 0.516557 0.5
56 1 0.370427 0.515629 0.5
147 1 0.46193 0.533333 0.5
174 1 0.481904 0.535472 0.5
16 1 0.275825 0.552651 0.5
189 1 0.291922 0.560025 0.5
128 1 0.31787 0.55847 0.5
211 1 0.328618 0.553877 0.5
124 1 0.336592 0.56132 0.5
196 1 0.483194 0.560715 0.5
96 1 0.256796 0.563822 0.5
194 1 0.374015 0.574923 0.5
116 1 0.398173 0.574666 0.5
86 1 0.46976 0.573114 0.5
80 1 0.253802 0.585838 0.5
205 1 0.274213 0.577459 0.5
151 1 0.352342 0.577486 0.5
224 1 0.383186 0.587833 0.5
12 1 0.41383 0.57566 0.5
184 1 0.289214 0.598778 0.5
131 1 0.336602 0.588461 0.5
126 1 0.325136 0.601727 0.5
8 1 0.432889 0.604805 0.5
164 1 0.468825 0.604573 0.5
54 1 0.484785 0.604209 0.5
81 1 0.494242 0.603787 0.5
2 1 0.303487 0.625778 0.5
59 1 0.371955 0.621088 0.5
143 1 0.348085 0.627443 0.5
29 1 0.359045 0.632596 0.5
212 1 0.389242 0.629201 0.5
188 1 0.404903 0.628256 0.5
204 1 0.448962 0.630556 0.5
1 1 0.250137 0.649455 0.5
36 1 0.267559 0.653918 0.5
166 1 0.319043 0.649341 0.5
108 1 0.421766 0.653152 0.5
55 1 0.29013 0.654752 0.5
76 1 0.330301 0.662419 0.5
208 1 0.339483 0.668065 0.5
79 1 0.375878 0.664652 0.5
155 1 0.396441 0.65735 0.5
49 1 0.459722 0.666503 0.5
92 1 0.496025 0.662331 0.5
107 1 0.277454 0.670353 0.5
216 1 0.311447 0.670116 0.5
169 1 0.388006 0.669929 0.5
103 1 0.40937 0.668633 0.5
6 1 0.434972 0.668672 0.5
72 1 0.470373 0.670578 0.5
26 1 0.479533 0.669838 0.5
77 1 0.487519 0.673038 0.5
214 1 0.534328 0.50946 0.5
150 1 0.540281 0.518994 0.5
47 1 0.61497 0.522249 0.5
44 1 0.670925 0.521248 0.5
172 1 0.697876 0.51439 0.5
69 1 0.745898 0.521857 0.5
20 1 0.556186 0.527263 0.5
159 1 0.706292 0.530201 0.5
121 1 0.580518 0.546167 0.5
93 1 0.597165 0.540763 0.5
97 1 0.643937 0.540946 0.5
179 1 0.730233 0.544204 0.5
167 1 0.514721 0.552916 0.5
215 1 0.612532 0.562545 0.5
71 1 0.671012 0.567336 0.5
27 1 0.682996 0.572408 0.5
11 1 0.690401 0.574959 0.5
105 1 0.510161 0.577528 0.5
28 1 0.618404 0.577133 0.5
192 1 0.630281 0.577315 0.5
141 1 0.616004 0.594746 0.5
173 1 0.747144 0.596365 0.5
129 1 0.60459 0.61393 0.5
176 1 0.660139 0.601244 0.5
161 1 0.677834 0.606162 0.5
186 1 0.708957 0.60755 0.5
102 1 0.511815 0.618919 0.5
51 1 0.536277 0.619769 0.5
153 1 0.550389 0.619424 0.5
182 1 0.565065 0.616643 0.5
113 1 0.617692 0.624214 0.5
4 1 0.697397 0.624623 0.5
200 1 0.737623 0.619387 0.5
90 1 0.527526 0.640161 0.5
34 1 0.572852 0.631319 0.5